Program Version,EnergyPlus, Version 8.4.0-09f5359d8a, YMD=2018.01.10 16:16
1,5,Environment Title[],Latitude[deg],Longitude[deg],Time Zone[],Elevation[m]
2,6,Day of Simulation[],Month[],Day of Month[],DST Indicator[1=yes 0=no],Hour[],StartMinute[],EndMinute[],DayType
3,3,Cumulative Day of Simulation[],Month[],Day of Month[],DST Indicator[1=yes 0=no],DayType  ! When Daily Report Variables Requested
4,2,Cumulative Days of Simulation[],Month[]  ! When Monthly Report Variables Requested
5,1,Cumulative Days of Simulation[] ! When Run Period Report Variables Requested
6,1,Environment,Site Outdoor Air Drybulb Temperature [C] !TimeStep
7,1,Environment,Site Outdoor Air Humidity Ratio [kgWater/kgDryAir] !TimeStep
8,1,Environment,Site Outdoor Air Relative Humidity [%] !TimeStep
1187,1,EMS,currentDayOfWeek [] !TimeStep
1189,1,EMS,currentHoliday [] !TimeStep
1242,1,BANQUET_FLR_6,Zone Air Temperature [C] !TimeStep
1275,1,BASEMENT,Zone Air Temperature [C] !TimeStep
1308,1,CAFE_FLR_1,Zone Air Temperature [C] !TimeStep
1341,1,CORRIDOR_FLR_3,Zone Air Temperature [C] !TimeStep
1374,1,CORRIDOR_FLR_6,Zone Air Temperature [C] !TimeStep
1407,1,DINING_FLR_6,Zone Air Temperature [C] !TimeStep
1430,1,KITCHEN_FLR_6,Zone Air Temperature [C] !TimeStep
1463,1,LAUNDRY_FLR_1,Zone Air Temperature [C] !TimeStep
1496,1,LOBBY_FLR_1,Zone Air Temperature [C] !TimeStep
1529,1,MECH_FLR_1,Zone Air Temperature [C] !TimeStep
1562,1,RETAIL_1_FLR_1,Zone Air Temperature [C] !TimeStep
1595,1,RETAIL_2_FLR_1,Zone Air Temperature [C] !TimeStep
1628,1,ROOM_1_FLR_3,Zone Air Temperature [C] !TimeStep
1661,1,ROOM_1_FLR_6,Zone Air Temperature [C] !TimeStep
1694,1,ROOM_2_FLR_3,Zone Air Temperature [C] !TimeStep
1727,1,ROOM_2_FLR_6,Zone Air Temperature [C] !TimeStep
1760,1,ROOM_3_MULT19_FLR_3,Zone Air Temperature [C] !TimeStep
1793,1,ROOM_3_MULT9_FLR_6,Zone Air Temperature [C] !TimeStep
1826,1,ROOM_4_MULT19_FLR_3,Zone Air Temperature [C] !TimeStep
1859,1,ROOM_5_FLR_3,Zone Air Temperature [C] !TimeStep
1892,1,ROOM_6_FLR_3,Zone Air Temperature [C] !TimeStep
1925,1,STORAGE_FLR_1,Zone Air Temperature [C] !TimeStep
2103,1,Whole Building,Facility Total Building Electric Demand Power [W] !TimeStep
2104,1,Whole Building,Facility Total HVAC Electric Demand Power [W] !TimeStep
2105,1,Whole Building,Facility Total Electric Demand Power [W] !TimeStep
2106,1,BANQUET_FLR_6 PEOPLE,Zone Thermal Comfort Fanger Model PMV [] !TimeStep
2107,1,BASEMENT PEOPLE,Zone Thermal Comfort Fanger Model PMV [] !TimeStep
2108,1,CAFE_FLR_1 PEOPLE,Zone Thermal Comfort Fanger Model PMV [] !TimeStep
2109,1,CORRIDOR_FLR_3 PEOPLE,Zone Thermal Comfort Fanger Model PMV [] !TimeStep
2110,1,CORRIDOR_FLR_6 PEOPLE,Zone Thermal Comfort Fanger Model PMV [] !TimeStep
2111,1,DINING_FLR_6 PEOPLE,Zone Thermal Comfort Fanger Model PMV [] !TimeStep
2112,1,KITCHEN_FLR_6 PEOPLE,Zone Thermal Comfort Fanger Model PMV [] !TimeStep
2113,1,LAUNDRY_FLR_1 PEOPLE,Zone Thermal Comfort Fanger Model PMV [] !TimeStep
2114,1,LOBBY_FLR_1 PEOPLE,Zone Thermal Comfort Fanger Model PMV [] !TimeStep
2115,1,RETAIL_1_FLR_1 PEOPLE,Zone Thermal Comfort Fanger Model PMV [] !TimeStep
2116,1,RETAIL_2_FLR_1 PEOPLE,Zone Thermal Comfort Fanger Model PMV [] !TimeStep
2117,1,ROOM_1_FLR_3 PEOPLE,Zone Thermal Comfort Fanger Model PMV [] !TimeStep
2118,1,ROOM_1_FLR_6 PEOPLE,Zone Thermal Comfort Fanger Model PMV [] !TimeStep
2119,1,ROOM_2_FLR_3 PEOPLE,Zone Thermal Comfort Fanger Model PMV [] !TimeStep
2120,1,ROOM_2_FLR_6 PEOPLE,Zone Thermal Comfort Fanger Model PMV [] !TimeStep
2121,1,ROOM_3_MULT19_FLR_3 PEOPLE,Zone Thermal Comfort Fanger Model PMV [] !TimeStep
2122,1,ROOM_3_MULT9_FLR_6 PEOPLE,Zone Thermal Comfort Fanger Model PMV [] !TimeStep
2123,1,ROOM_4_MULT19_FLR_3 PEOPLE,Zone Thermal Comfort Fanger Model PMV [] !TimeStep
2124,1,ROOM_5_FLR_3 PEOPLE,Zone Thermal Comfort Fanger Model PMV [] !TimeStep
2125,1,ROOM_6_FLR_3 PEOPLE,Zone Thermal Comfort Fanger Model PMV [] !TimeStep
2126,1,STORAGE_FLR_1 PEOPLE,Zone Thermal Comfort Fanger Model PMV [] !TimeStep
2127,1,CLGSETP_SCH,Schedule Value [] !TimeStep
2128,1,HTGSETP_SCH,Schedule Value [] !TimeStep
2129,1,GUEST_CLGSETP_SCH,Schedule Value [] !TimeStep
2130,1,GUEST_HTGSETP_SCH,Schedule Value [] !TimeStep
2131,1,KITCHEN_CLGSETP_SCH,Schedule Value [] !TimeStep
2132,1,KITCHEN_HTGSETP_SCH,Schedule Value [] !TimeStep
2133,1,SEASONAL-RESET-SUPPLY-AIR-TEMP-SCH,Schedule Value [] !TimeStep
2134,1,CW-LOOP-TEMP-SCHEDULE,Schedule Value [] !TimeStep
End of Data Dictionary
1,Chicago Ohare Intl Ap IL USA TMY3 WMO#=725300,  41.98, -87.92,  -6.00, 201.00
2,1, 8, 1, 1, 1, 0.00,15.00,Friday
6,18.825
7,1.236003897460377E-002
8,89.25
1187,6.
1189,0.0
2106,5.458238616887687E-003
2107,-0.649099573049283
2108,-0.189194752864213
2109,0.41244680599447
2110,0.579514681025923
2111,-8.505306928069516E-002
2112,0.160233146136162
2113,-1.3086722099431
2114,-0.812109097083116
2115,-0.523091779275035
2116,-0.370908931633783
2117,-0.231504998567164
2118,-0.361607976204525
2119,-0.239896539342267
2120,-0.371150256234844
2121,-0.370696716648389
2122,-0.416677451789165
2123,-0.389031377664413
2124,-0.270804951321294
2125,-0.282666928418579
2126,-0.156413304437446
2127,30.
2128,16.
2129,24.
2130,21.
2131,30.
2132,16.
2133,13.
2134,6.7
1242,28.5753244525511
1275,23.8573833975329
1308,27.0209156599578
1341,26.8916163160956
1374,27.5055144500875
1407,28.5911503830449
1430,28.0225009035679
1463,23.1108208154564
1496,23.2958021798407
1529,25.9855669761263
1562,24.7322700618131
1595,25.1589160383147
1628,23.9998374717949
1661,24.0000147551744
1694,23.9999113882786
1727,23.9999673067437
1760,24.0000009952428
1793,23.9999795467592
1826,24.0000120870168
1859,23.9999492246484
1892,23.999969029949
1925,25.214666789322
2103,73611.6160663651
2104,38984.0251621084
2105,112595.641228474
2,1, 8, 1, 1, 1,15.00,30.00,Friday
6,19.35
7,1.267366512954004E-002
8,88.5
1187,6.
1189,0.0
2106,1.05467927813033
2107,-0.595560936953097
2108,0.500420049358392
2109,0.427935130826392
2110,0.621009899809599
2111,0.938144039432981
2112,1.37589981554731
2113,-0.508729872271544
2114,-0.640398254022193
2115,-0.217547913903298
2116,-0.107377419081176
2117,-0.230778963752277
2118,-0.364604588421213
2119,-0.239038532999695
2120,-0.374071773702009
2121,-0.36856704497566
2122,-0.410538959021141
2123,-0.386568159640738
2124,-0.26947059089454
2125,-0.281149934364386
2126,-0.136762268430975
2127,30.
2128,16.
2129,24.
2130,21.
2131,30.
2132,16.
2133,13.
2134,6.7
1242,30.2695607476698
1275,24.267000021901
1308,28.4160373928967
1341,26.9974352023298
1374,27.7429221471661
1407,30.3099625822092
1430,29.2823399436412
1463,25.007506697663
1496,24.3348280076385
1529,26.0798741564156
1562,25.8715821675262
1595,26.1395781818856
1628,24.0001385300346
1661,24.0000052760094
1694,23.9998894080798
1727,24.0002033587168
1760,23.9999589701232
1793,23.9998832865349
1826,24.0002506336237
1859,23.999929944116
1892,23.9998234078296
1925,25.4246621274046
2103,73800.5641543289
2104,40358.6501828415
2105,114159.21433717
2,1, 8, 1, 1, 1,30.00,45.00,Friday
6,19.875
7,1.299269924830587E-002
8,87.75
1187,6.
1189,0.0
2106,1.57292606871405
2107,-0.510990794293066
2108,0.905197952828464
2109,0.450449255602788
2110,0.67085896373064
2111,1.46486783930846
2112,1.74808336594471
2113,-0.110831752059452
2114,-0.426631794560182
2115,4.234642428311066E-002
2116,0.116751596774889
2117,-0.230099694176553
2118,-0.368288916807592
2119,-0.238351950981801
2120,-0.377612343099672
2121,-0.367054181926756
2122,-0.408027020742246
2123,-0.384671169240539
2124,-0.268228245563071
2125,-0.279838162780869
2126,-9.069732931832711E-002
2127,30.
2128,16.
2129,24.
2130,21.
2131,30.
2132,16.
2133,13.
2134,6.7
1242,27.2964152845833
1275,23.94578745937
1308,26.3700816975702
1341,26.9021476689472
1374,27.4638326991097
1407,27.3582367965816
1430,25.8059194373464
1463,19.7300465863119
1496,23.5381731295964
1529,25.997112757916
1562,24.773807130485
1595,25.3683879815975
1628,24.0001654352674
1661,24.0000556523721
1694,23.9998272205608
1727,23.9998920982462
1760,24.0000148181894
1793,24.0000208948749
1826,24.0000374446991
1859,23.9999348399128
1892,23.9998155254918
1925,25.3162640585588
2103,73823.1379494956
2104,85782.7294574559
2105,159605.867406952
2,1, 8, 1, 1, 1,45.00,60.00,Friday
6,20.4
7,1.331714250849911E-002
8,87.
1187,6.
1189,0.0
2106,0.968327173685882
2107,-0.573818720896569
2108,0.506971752589921
2109,0.431704459913858
2110,0.607461228811022
2111,0.764870321446494
2112,0.84914835352498
2113,-1.35833870773984
2114,-0.612939412708482
2115,-0.187748637278456
2116,-3.124722133104684E-002
2117,-0.229527195000155
2118,-0.37211291549832
2119,-0.237738329527899
2120,-0.381404212802484
2121,-0.365923247658658
2122,-0.408681762820913
2123,-0.383315989428448
2124,-0.267095317583293
2125,-0.278577925432903
2126,-0.110798015429367
2127,30.
2128,16.
2129,24.
2130,21.
2131,30.
2132,16.
2133,13.
2134,6.7
1242,25.3911826283062
1275,23.3422942738101
1308,24.5935462670672
1341,26.7489460206929
1374,27.1139830743786
1407,25.4878350168978
1430,24.210350988795
1463,17.6938169951842
1496,22.3620473763778
1529,25.8157669763431
1562,23.4752031178022
1595,24.1958958031572
1628,24.0002220673861
1661,23.9999036492803
1694,24.0000030123181
1727,24.0001410588072
1760,23.9999517906522
1793,24.0000132309124
1826,24.0000414419252
1859,23.9998933929666
1892,24.0000699266815
1925,25.0246960517507
2103,73700.9518946204
2104,101014.653576644
2105,174715.605471265
2,1, 8, 1, 1, 2, 0.00,15.00,Friday
6,20.175
7,1.336057687779155E-002
8,88.5
1187,6.
1189,0.0
2106,0.4486891826745
2107,-0.691986678112522
2108,5.704951245216471E-002
2109,0.401897670002771
2110,0.532772564043366
2111,0.173036380803461
2112,0.383431672112263
2113,-1.7453967115343
2114,-0.841791477793047
2115,-0.464476936201334
2116,-0.273400396468285
2117,-0.232755220981216
2118,-0.380340347430011
2119,-0.240857366964164
2120,-0.38947765464598
2121,-0.367053813010714
2122,-0.413995154678888
2123,-0.383841828642398
2124,-0.270890012645376
2125,-0.281013817359553
2126,-0.168476268168881
2127,30.
2128,16.
2129,24.
2130,21.
2131,30.
2132,16.
2133,13.
2134,6.7
1242,29.226928565375
1275,23.740108766001
1308,27.2950785565792
1341,26.8707677223146
1374,27.4284310388315
1407,29.3110484984373
1430,28.2558091803611
1463,22.2035322819711
1496,23.4360327844613
1529,25.8832410945961
1562,24.8640424868416
1595,25.2390446548391
1628,24.0001481548972
1661,23.9999218112227
1694,23.9999098669095
1727,23.999977101348
1760,24.0000159951779
1793,24.0000137772187
1826,24.0000289699287
1859,23.9999960201073
1892,23.9999957070151
1925,25.1732007156267
2103,65755.7816327118
2104,40656.6380692882
2105,106412.419702
2,1, 8, 1, 1, 2,15.00,30.00,Friday
6,19.95
7,1.339989208503353E-002
8,90.
1187,6.
1189,0.0
2106,1.31961880040037
2107,-0.606412314392471
2108,0.662617978335681
2109,0.428272737543887
2110,0.598789211497973
2111,1.05211577310665
2112,1.33708970112033
2113,-0.741474609372671
2114,-0.601733141536427
2115,-0.162051598203547
2116,-4.502038620118608E-002
2117,-0.234718564112769
2118,-0.387110258468812
2119,-0.242762914347703
2120,-0.397214285198079
2121,-0.366920266111033
2122,-0.419938879426746
2123,-0.384535090481193
2124,-0.272236416989663
2125,-0.282294208627694
2126,-0.137289377380596
2127,30.
2128,16.
2129,24.
2130,21.
2131,30.
2132,16.
2133,13.
2134,6.7
1242,26.2397350147819
1275,23.4938675094061
1308,25.4500350236634
1341,26.7897969887718
1374,27.1593751135713
1407,26.3436853361921
1430,22.966480174405
1463,16.694057015631
1496,22.5849128046471
1529,25.8002495147202
1562,23.8066160686672
1595,24.6396508138568
1628,24.0000595612394
1661,23.9999834087321
1694,24.0000509875828
1727,24.0000029444888
1760,23.9999608885482
1793,23.9999772785028
1826,23.999877225383
1859,23.9999564602601
1892,24.000022864425
1925,25.066633805204
2103,65884.9658891608
2104,97820.964030916
2105,163705.929920077
2,1, 8, 1, 1, 2,30.00,45.00,Friday
6,19.725
7,1.343517813957985E-002
8,91.5
1187,6.
1189,0.0
2106,0.652096761720753
2107,-0.658354942177984
2108,0.249413465024328
2109,0.410760608981343
2110,0.533633922054507
2111,0.372436382710377
2112,3.955903280946121E-002
2113,-2.00698103705456
2114,-0.813328929096545
2115,-0.408853639256931
2116,-0.175298699118182
2117,-0.236369874171604
2118,-0.394329625573149
2119,-0.24429991763179
2120,-0.402894820205229
2121,-0.367345541398461
2122,-0.422015853090727
2123,-0.383747407814015
2124,-0.273335253362205
2125,-0.283249665253642
2126,-0.159310630529981
2127,30.
2128,16.
2129,24.
2130,21.
2131,30.
2132,16.
2133,13.
2134,6.7
1242,25.3701362877841
1275,23.1593834936299
1308,24.4646539901438
1341,26.6923384830639
1374,26.9387418957567
1407,25.475393532511
1430,23.5214874717221
1463,17.2776279129905
1496,22.0260858175417
1529,25.6610713042881
1562,23.1721072007985
1595,23.9973919831763
1628,23.9999589753626
1661,24.0000062005499
1694,23.9998623623496
1727,23.9999509429914
1760,23.9999431541719
1793,23.9999706596883
1826,23.9999510801758
1859,23.9999481136988
1892,24.0000767290322
1925,24.8699674279669
2103,65703.0873641425
2104,93253.980014809
2105,158957.067378952
2,1, 8, 1, 1, 2,45.00,60.00,Friday
6,19.5
7,1.346652707761800E-002
8,93.
1187,6.
1189,0.0
2106,0.401261853623308
2107,-0.725582006656595
2108,-1.716521874706650E-002
2109,0.392260013261955
2110,0.484726073756203
2111,0.13679106452525
2112,0.143366010967155
2113,-1.88939305055028
2114,-0.915436622551847
2115,-0.551063500260905
2116,-0.315201440350703
2117,-0.237964565272495
2118,-0.399416116736501
2119,-0.245843199636737
2120,-0.408870629880922
2121,-0.366209153153777
2122,-0.422437674706995
2123,-0.382680232349225
2124,-0.274372774222009
2125,-0.284166362660722
2126,-0.199758559270658
2127,30.
2128,16.
2129,24.
2130,21.
2131,30.
2132,16.
2133,13.
2134,6.7
1242,29.2490857692152
1275,23.6601493472612
1308,27.2185271406878
1341,26.8323655278169
1374,27.2766163006827
1407,29.3378551908943
1430,27.6260410681704
1463,21.7582765904367
1496,23.2648794255335
1529,25.7601883847763
1562,24.6472209604274
1595,25.1348607376221
1628,24.0001108892503
1661,24.000023702187
1694,24.0002058048049
1727,24.0000251666143
1760,24.0000476525761
1793,23.9999873170208
1826,24.0000492388824
1859,24.0000087844576
1892,24.0000217950514
1925,25.0729556368798
2103,65735.0754986481
2104,38793.1057379855
2105,104528.181236634
2,1, 8, 1, 1, 3, 0.00,15.00,Friday
6,19.3
7,1.343900608977551E-002
8,94.
1187,6.
1189,0.0
2106,1.29190648399992
2107,-0.618289989572983
2108,0.604447187443986
2109,0.422350045941424
2110,0.556002481615374
2111,1.04094596309626
2112,1.13457101374147
2113,-0.88988604335463
2114,-0.64243234223254
2115,-0.230952866953864
2116,-6.807804258468808E-002
2117,-0.239107931790736
2118,-0.403795124091769
2119,-0.246901591548351
2120,-0.412372469906488
2121,-0.36483727117229
2122,-0.424005084560594
2123,-0.381370241763335
2124,-0.275013840068976
2125,-0.284719011331964
2126,-0.155919160075959
2127,30.
2128,16.
2129,24.
2130,21.
2131,30.
2132,16.
2133,13.
2134,6.7
1242,26.2436544941171
1275,23.4422307985889
1308,25.3792481608816
1341,26.7572496820797
1374,27.0160308876311
1407,26.3496886606785
1430,22.5838460857839
1463,16.6173072235771
1496,22.498308408306
1529,25.7040485850507
1562,23.6264747798847
1595,24.5572252713142
1628,23.9999855352744
1661,23.9999874731759
1694,24.0001178577031
1727,23.9999931032381
1760,24.0000238108061
1793,24.0000179518851
1826,23.9999250233205
1859,24.0000634652589
1892,24.0000084383346
1925,24.9891747869611
2103,65867.6175320106
2104,92944.7210152121
2105,158812.338547223
2,1, 8, 1, 1, 3,15.00,30.00,Friday
6,19.1
7,1.340972945442285E-002
8,95.
1187,6.
1189,0.0
2106,0.633867691503882
2107,-0.665180890706403
2108,0.202168390087168
2109,0.406117562519722
2110,0.493167380152649
2111,0.367667414304745
2112,-9.646081514733806E-002
2113,-2.06492047744083
2114,-0.835742061396012
2115,-0.468490453266104
2116,-0.195015635691869
2117,-0.240260473199611
2118,-0.408271230827326
2119,-0.247972251389269
2120,-0.41544862474883
2121,-0.363419757280804
2122,-0.424356693160639
2123,-0.380040722058791
2124,-0.275597408290525
2125,-0.285211498838862
2126,-0.174305585040376
2127,30.
2128,16.
2129,24.
2130,21.
2131,30.
2132,16.
2133,13.
2134,6.7
1242,25.3746692804164
1275,23.1235421091151
1308,24.3972315658672
1341,26.6629363552825
1374,26.8041387060282
1407,25.4830606192241
1430,23.1361816751508
1463,17.1155368816205
1496,21.9600637780029
1529,25.5807392246406
1562,23.0155334957509
1595,23.9292904505458
1628,24.0000265366102
1661,23.9999956008821
1694,24.0000587057557
1727,23.9999724889721
1760,23.9999929600369
1793,23.9999912407213
1826,23.9999843277086
1859,23.9999828489454
1892,23.9999850263291
1925,24.8093184161335
2103,65690.0650462818
2104,88478.3341132038
2105,154168.399159486
2,1, 8, 1, 1, 3,30.00,45.00,Friday
6,18.9
7,1.337874015955537E-002
8,96.
1187,6.
1189,0.0
2106,0.395480482985054
2107,-0.729121554136694
2108,-5.324829170218629E-002
2109,0.388276591141625
2110,0.446277121345653
2111,0.138897654436347
2112,-3.323406094173313E-003
2113,-1.9642625207881
2114,-0.935676678710235
2115,-0.604187024393427
2116,-0.332406268203513
2117,-0.24138146817652
2118,-0.410991897293326
2119,-0.249061871466085
2120,-0.419527209450063
2121,-0.3619559689254
2122,-0.424670018476084
2123,-0.378610114482042
2124,-0.276249093291815
2125,-0.285738888437952
2126,-0.211220015974992
2127,30.
2128,16.
2129,24.
2130,21.
2131,30.
2132,16.
2133,13.
2134,6.7
1242,29.251303032414
1275,23.6281553490439
1308,27.1465700628894
1341,26.8036601839478
1374,27.1433244062575
1407,29.3445043932039
1430,27.1485944232136
1463,21.4623625357676
1496,23.1798111996307
1529,25.6876256310376
1562,24.48303261094
1595,25.0702236963434
1628,24.0001233628742
1661,23.9999762545277
1694,23.9999697926944
1727,23.9999656590633
1760,24.0000545107297
1793,23.9999976650795
1826,23.9999866071519
1859,24.0000787104793
1892,24.0000637964608
1925,25.0205146725576
2103,65717.7265909681
2104,37698.3358103218
2105,103416.06240129
2,1, 8, 1, 1, 3,45.00,60.00,Friday
6,18.7
7,1.334608137736975E-002
8,97.
1187,6.
1189,0.0
2106,1.288838658706
2107,-0.622079842068965
2108,0.570887434949081
2109,0.418511312133539
2110,0.518330453670429
2111,1.04402858996538
2112,0.964451688699077
2113,-0.992011834268811
2114,-0.666552271076259
2115,-0.284596732929625
2116,-8.448669161689455E-002
2117,-0.242352126747316
2118,-0.413387961345093
2119,-0.250010844147179
2120,-0.42256633645611
2121,-0.360439889047464
2122,-0.424930593491407
2123,-0.377149732946759
2124,-0.276722599993954
2125,-0.286104036007348
2126,-0.165512935257313
2127,30.
2128,16.
2129,24.
2130,21.
2131,30.
2132,16.
2133,13.
2134,6.7
1242,26.2461363311007
1275,23.4132960473023
1308,25.3234003248135
1341,26.7294767808148
1374,26.8881840645855
1407,26.3554361224549
1430,22.2249239368008
1463,16.5598292168055
1496,22.4348753051534
1529,25.637176291981
1562,23.4854258712361
1595,24.5010552266764
1628,24.0000390479887
1661,23.9999695058912
1694,24.0000621229638
1727,23.9999891346341
1760,23.9999469194073
1793,24.0000163859334
1826,23.9999482923035
1859,24.0000701001925
1892,23.9999408304359
1925,24.9397337890215
2103,65846.7970450112
2104,89017.7786005097
2105,154864.575645521
2,1, 8, 1, 1, 4, 0.00,15.00,Friday
6,18.475
7,1.291312743369420E-002
8,95.25
1187,6.
1189,0.0
2106,0.632215496789569
2107,-0.668850755969063
2108,0.173495362962886
2109,0.402193789924491
2110,0.456603058088418
2111,0.370306029183798
2112,-0.235184545121084
2113,-2.10983334913973
2114,-0.853915010147867
2115,-0.517513398073395
2116,-0.210050007494573
2117,-0.244338545262718
2118,-0.417932613835371
2119,-0.251889146837477
2120,-0.426185915952491
2121,-0.359328750087362
2122,-0.425899085055086
2123,-0.376109515370467
2124,-0.278222680263561
2125,-0.287515657301212
2126,-0.183435934560711
2127,30.
2128,16.
2129,24.
2130,21.
2131,30.
2132,16.
2133,13.
2134,6.7
1242,25.3789447086622
1275,23.0964351460526
1308,24.3410243833483
1341,26.6353740950446
1374,26.6810706474796
1407,25.4911318850514
1430,22.8034662340483
1463,16.9932226702103
1496,21.9000580988372
1529,25.5185205616872
1562,22.8842816598359
1595,23.8796678885186
1628,23.9999687448951
1661,23.999982843283
1694,24.0001267726518
1727,23.9999900736388
1760,23.9999546841442
1793,23.9999761547721
1826,23.9999992779024
1859,23.9999940212285
1892,24.0000360655434
1925,24.7628351785291
2103,73051.2190691252
2104,82342.6632493698
2105,155393.882318495
2,1, 8, 1, 1, 4,15.00,30.00,Friday
6,18.25
7,1.248987966307225E-002
8,93.5
1187,6.
1189,0.0
2106,0.395630678387242
2107,-0.733269031993258
2108,-8.018429585526465E-002
2109,0.384012673905579
2110,0.410357471700309
2111,0.141895881813558
2112,-0.133506642545944
2113,-2.02382142030437
2114,-0.955678081351011
2115,-0.651685117246252
2116,-0.346743350955134
2117,-0.246525772634306
2118,-0.421486755812468
2119,-0.253986332633244
2120,-0.431045309397788
2121,-0.358220424774052
2122,-0.426947266762673
2123,-0.375080344651362
2124,-0.279928033632139
2125,-0.289074894045341
2126,-0.220064286205133
2127,30.
2128,16.
2129,24.
2130,21.
2131,30.
2132,16.
2133,13.
2134,6.7
1242,29.2514400085491
1275,23.5998199514976
1308,27.0744009486723
1341,26.7746505858496
1374,27.0185510542595
1407,29.3490762109693
1430,26.8323589937964
1463,21.2255901187661
1496,23.1061752984839
1529,25.6274258453714
1562,24.3325503061901
1595,25.0199627537767
1628,24.0000586285119
1661,23.9999501894851
1694,24.0000697225567
1727,24.0000058192724
1760,23.9998541616529
1793,23.9999790249858
1826,23.9999861523793
1859,24.000095522768
1892,23.9999817614134
1925,24.9734656346093
2103,73073.7291718506
2104,36596.3943590978
2105,109670.123530948
2,1, 8, 1, 1, 4,30.00,45.00,Friday
6,18.025
7,1.207614962067026E-002
8,91.75
1187,6.
1189,0.0
2106,1.28808712055079
2107,-0.626744649466123
2108,0.539840117073856
2109,0.413609155967905
2110,0.4818576218049
2111,1.0459406287242
2112,0.835374067474371
2113,-1.07647316100683
2114,-0.690010560042755
2115,-0.337149846703533
2116,-9.936702349442994E-002
2117,-0.24846008983321
2118,-0.425892922832437
2119,-0.256971651566889
2120,-0.434477591218801
2121,-0.357204921089681
2122,-0.428125024763371
2123,-0.375350358496408
2124,-0.281380612786952
2125,-0.291519610662194
2126,-0.174796673488175
2127,30.
2128,16.
2129,24.
2130,21.
2131,30.
2132,16.
2133,13.
2134,6.7
1242,26.243476695409
1275,23.3863676346823
1308,25.2570847353487
1341,26.6991109989737
1374,26.7655269400957
1407,26.3560996714321
1430,21.8765571473759
1463,16.509197108419
1496,22.3728277856854
1529,25.578849382202
1562,23.340890440562
1595,24.453931753399
1628,23.9999801461941
1661,24.0000080749542
1694,24.0000677717079
1727,24.0000162450692
1760,24.0000367201287
1793,23.9999973151269
1826,23.9999660954804
1859,24.0000010250538
1892,24.0000171542136
1925,24.8935129910632
2103,73190.3267517459
2104,78192.7318057418
2105,151383.058557488
2,1, 8, 1, 1, 4,45.00,60.00,Friday
6,17.8
7,1.167175483119587E-002
8,90.
1187,6.
1189,0.0
2106,0.630686250474477
2107,-0.673565468909861
2108,0.143871384938676
2109,0.396793434126349
2110,0.420461936578682
2111,0.370928111756913
2112,-0.362570874437075
2113,-2.15086069734681
2114,-0.874786142145872
2115,-0.569300533312496
2116,-0.224747196303916
2117,-0.250459827393873
2118,-0.429193275197622
2119,-0.258818619798334
2120,-0.43773434464205
2121,-0.357369510102748
2122,-0.429381939512487
2123,-0.374555685722819
2124,-0.28292113431161
2125,-0.2927667625607
2126,-0.192924402707759
2127,30.
2128,16.
2129,24.
2130,21.
2131,30.
2132,16.
2133,13.
2134,6.7
1242,25.3793345976628
1275,23.0706724451764
1308,24.2769271695176
1341,26.6049180620763
1374,26.5616129645948
1407,25.4951661227355
1430,22.5555081196565
1463,16.8880226554789
1496,21.8402857433844
1529,25.4619214462199
1562,22.7492392431374
1595,23.8358721187863
1628,24.0000089997329
1661,23.9999813423068
1694,24.0000225215682
1727,24.0000091724068
1760,24.0001004837764
1793,23.9999797020541
1826,23.9998833703325
1859,23.9999967571283
1892,24.0000069165572
1925,24.7201120408431
2103,73020.4999210413
2104,72896.3222813113
2105,145916.822202353
2,1, 8, 1, 1, 5, 0.00,15.00,Friday
6,17.8
7,1.157268048315619E-002
8,89.25
1187,6.
1189,0.0
2106,0.399798285353806
2107,-0.734658891642802
2108,-0.102795107645834
2109,0.379755324120918
2110,0.376439885882338
2111,0.148256448974484
2112,-0.20416992592756
2113,-2.07511521386194
2114,-0.967543011065324
2115,-0.694668523426918
2116,-0.356469255192105
2117,-0.249097752033218
2118,-0.428335268892652
2119,-0.2574940180692
2120,-0.436811393056743
2121,-0.352888059299461
2122,-0.427027178327219
2123,-0.370997169624082
2124,-0.281154023766675
2125,-0.291000523849381
2126,-0.226489453412938
2127,30.
2128,16.
2129,24.
2130,21.
2131,30.
2132,16.
2133,13.
2134,6.7
1242,29.282597637084
1275,23.632462355808
1308,27.0520308797081
1341,26.7546484652034
1374,26.9107369627085
1407,29.3852643403055
1430,26.6468704798729
1463,21.028468169995
1496,23.3630942890377
1529,25.6208415394535
1562,24.2568349420167
1595,25.0425742869267
1628,24.0000306750607
1661,23.9999949450687
1694,24.0000502640763
1727,23.9999946763068
1760,24.0001390455973
1793,23.9999965333169
1826,24.0000505177436
1859,24.000138358126
1892,24.0000244582799
1925,24.9578812261256
2103,100555.013480969
2104,35925.2117738671
2105,136480.225254836
2,1, 8, 1, 1, 5,15.00,30.00,Friday
6,17.8
7,1.147363711172747E-002
8,88.5
1187,6.
1189,0.0
2106,1.30086786858554
2107,-0.615304462866794
2108,0.530542270586996
2109,0.41191658695988
2110,0.45151391221878
2111,1.06145522035549
2112,0.796592633605168
2113,-1.14609029505671
2114,-0.630489402028035
2115,-0.36358591110028
2116,-9.271332156805517E-002
2117,-0.249602004518951
2118,-0.429438123564106
2119,-0.25790488339671
2120,-0.437867765934632
2121,-0.351135083150399
2122,-0.426704097616986
2123,-0.369194265243107
2124,-0.281127626641094
2125,-0.290838104609483
2126,-0.174199174166034
2127,30.
2128,16.
2129,24.
2130,21.
2131,30.
2132,16.
2133,13.
2134,6.7
1242,26.2818775582857
1275,23.4747872864281
1308,25.2715455165676
1341,26.6901104096143
1374,26.6742490234986
1407,26.3995913216177
1430,21.8457348665848
1463,16.4730893935092
1496,22.8735692744882
1529,25.6282928737455
1562,23.3384689183281
1595,24.5331769994069
1628,24.0000620221374
1661,24.0000223361736
1694,24.0000213522129
1727,23.9999830335092
1760,24.0000148299338
1793,24.0000137405157
1826,23.9999922032574
1859,23.9999617855509
1892,24.000006346618
1925,24.9083617450371
2103,100684.554418131
2104,75337.2732024054
2105,176021.827620536
2,1, 8, 1, 1, 5,30.00,45.00,Friday
6,17.8
7,1.137462470238424E-002
8,87.75
1187,6.
1189,0.0
2106,0.646410083014708
2107,-0.649990274913219
2108,0.146458752063252
2109,0.397708204474625
2110,0.394525306088369
2111,0.389564302650512
2112,-0.354497479780446
2113,-2.18191464632799
2114,-0.749588671562976
2115,-0.575451055616851
2116,-0.203552076025697
2117,-0.25047284319341
2118,-0.429815638480891
2119,-0.257531196894203
2120,-0.438202515034829
2121,-0.350762909800247
2122,-0.428040806501983
2123,-0.367486445535484
2124,-0.280424890480481
2125,-0.289901252551826
2126,-0.184467713977104
2127,30.
2128,16.
2129,24.
2130,21.
2131,30.
2132,16.
2133,13.
2134,6.7
1242,25.427447642673
1275,23.166064166243
1308,24.310079153248
1341,26.6033966141183
1374,26.4845951737605
1407,25.5503648354014
1430,22.6390154297367
1463,16.8079183704052
1496,22.3284896763713
1529,25.5443132584047
1562,22.7716897537962
1595,23.9289728699194
1628,24.000011688566
1661,23.9999964108612
1694,24.0000116608357
1727,24.0000047066552
1760,23.9999789070061
1793,23.9999975708906
1826,24.0000959024193
1859,24.0000225689294
1892,24.0000148159111
1925,24.7553587223984
2103,100526.564413612
2104,73226.1150336764
2105,173752.679447288
2,1, 8, 1, 1, 5,45.00,60.00,Friday
6,17.8
7,1.127564324061013E-002
8,87.
1187,6.
1189,0.0
2106,0.416387301068158
2107,-0.712311749972594
2108,-9.487393967762146E-002
2109,0.381636794593229
2110,0.353362406224902
2111,0.168151911486396
2112,-0.185342045921242
2113,-2.11630141914229
2114,-0.847504350951532
2115,-0.695665658281835
2116,-0.334623879890384
2117,-0.247684646764324
2118,-0.427595270468676
2119,-0.25408353434748
2120,-0.435270987980732
2121,-0.348603475156262
2122,-0.426806826205876
2123,-0.36434692386407
2124,-0.271472486053539
2125,-0.28066710415119
2126,-0.215159718150371
2127,30.
2128,16.
2129,24.
2130,21.
2131,30.
2132,16.
2133,13.
2134,6.7
1242,29.3250487609804
1275,23.6825358830231
1308,27.0766942339911
1341,26.7504951467524
1374,26.8352332372637
1407,29.4369852602584
1430,26.7149530191404
1463,20.866309954856
1496,23.6212731063566
1529,25.6797461739237
1562,24.2495351674789
1595,25.0972119922549
1628,24.0000540169103
1661,24.0000130101757
1694,24.0000242264037
1727,23.9999912158175
1760,23.9999241196155
1793,24.000036883415
1826,24.0000514934356
1859,24.0000032582335
1892,23.9999833811157
1925,24.9855519392645
2103,83806.3712679488
2104,36410.4244896148